# vtk DataFile Version 3.0
vtk output
ASCII
DATASET POLYDATA
POINTS  10  float
0.0687525  0.742887  0.10955
0.0142252  0.0623425  0.0293207
0.227604  0.997481  0.469131
0.304457  0.125546  0.229711
0.113802  0.49874  0.234566
0.755363  0.164072  0.387514
0.056901  0.24937  0.117283
0.331191  0.459159  0.0913544
0.0284505  0.124685  0.0586414
0.684048  0.782964  0.153002

LINES  9  27
2  0  1
2  1  8
2  1  9
2  4  2
2  4  3
2  6  4
2  6  5
2  8  6
2  8  7

CELL_DATA  9
scalars radius float
LOOKUP_TABLE default
3.97081
3.65325
2.4016
2.06423
2.38756
2.81917
2.56926
3.40178
2.10981
